ITEM: TIMESTEP
0
ITEM: NUMBER OF ATOMS
168
ITEM: BOX BOUNDS ss ss ss
-14.168 27.284
-11.376 11.465
-13.332 7.268
ITEM: ATOMS id type xs ys zs
1 1 0.152586 0.813537 0.529951
2 3 0.166433 0.726107 0.473155
3 4 0.131936 0.772295 0.57199
4 1 0.214344 0.768005 0.401262
5 3 0.226913 0.714242 0.496505
6 4 0.243197 0.805087 0.381359
7 1 0.237311 0.613152 0.443786
8 3 0.267707 0.561928 0.362476
9 4 0.205853 0.580097 0.439223
10 1 0.315111 0.528129 0.446408
11 3 0.313423 0.445777 0.51835
12 4 0.341093 0.553391 0.491359
13 1 0.28802 0.36938 0.441748
14 3 0.340973 0.341229 0.41233
15 4 0.271639 0.338689 0.385243
16 1 0.357401 0.289873 0.523107
17 3 0.383359 0.207303 0.474223
18 4 0.359476 0.284532 0.597087
19 1 0.328621 0.146885 0.448252
20 3 0.283267 0.187864 0.393204
21 4 0.319478 0.10271 0.500874
22 1 0.277791 0.105643 0.302379
23 3 0.243269 0.0676415 0.385583
24 4 0.288816 0.0598047 0.253107
25 1 0.18718 0.0820892 0.32335
26 3 0.185829 0.00175124 0.248738
27 4 0.168388 0.139924 0.328398
28 1 0.122503 0.00385274 0.223155
29 3 0.110706 0.0301213 0.112961
30 4 0.0867027 0.0148855 0.23568
31 1 0.172079 0.0321352 0.0700485
32 3 0.16419 0.115976 0.00194175
33 5 0.195881 0.0345539 0.0510119
34 1 0.159968 0.196139 0.0972815
35 3 0.206504 0.258045 0.0901456
36 4 0.128944 0.210586 0.134029
37 1 0.219941 0.262467 0.217524
38 3 0.251978 0.183136 0.176845
39 5 0.233912 0.327445 0.283445
40 1 0.310118 0.233571 0.196359
41 3 0.331733 0.295521 0.279175
42 4 0.319816 0.260278 0.131165
43 1 0.383118 0.226785 0.310049
44 3 0.391006 0.323278 0.266845
45 4 0.41337 0.194956 0.286553
46 1 0.397255 0.379187 0.386311
47 3 0.404781 0.456329 0.309272
48 5 0.404843 0.424403 0.450885
49 1 0.350333 0.443676 0.242961
50 3 0.30814 0.488726 0.30466
51 4 0.330382 0.404098 0.19733
52 1 0.321456 0.599799 0.273447
53 3 0.302301 0.635918 0.170874
54 4 0.346135 0.648614 0.279903
55 1 0.238879 0.632328 0.205631
56 3 0.211835 0.61626 0.304417
57 4 0.231135 0.58106 0.161019
58 1 0.163659 0.685434 0.287476
59 3 0.123782 0.633948 0.226165
60 4 0.149932 0.74734 0.278981
61 1 0.106219 0.56473 0.326456
62 3 0.0732655 0.649227 0.326845
63 4 0.116424 0.524495 0.382379
64 1 0.0268262 0.610788 0.396602
65 3 0.0504921 0.630708 0.499563
66 4 0.000964972 0.570553 0.423301
67 1 0.0575364 0.748479 0.48199
68 3 0.0713838 0.740729 0.594466
69 4 0.0403117 0.806007 0.467427
70 1 0.0193718 0.682588 0.634078
71 3 0.0419763 0.598967 0.687961
72 5 0.0287194 0.69299 0.695535
73 1 0.0312892 0.521037 0.590388
74 3 0.0746888 0.49201 0.659029
75 4 0.0284667 0.504619 0.518641
76 1 0.120042 0.555843 0.59267
77 3 0.141513 0.509566 0.687282
78 4 0.128896 0.61823 0.570777
79 1 0.116713 0.58395 0.775728
80 3 0.0961594 0.530669 0.86665
81 4 0.112178 0.646732 0.799078
82 1 0.044051 0.484699 0.811748
83 3 0.0289733 0.383521 0.808592
84 4 0.0109283 0.505495 0.788495
85 1 0.0803821 0.342629 0.745097
86 3 0.130271 0.289217 0.755194
87 4 0.059587 0.334705 0.683447
88 1 0.164672 0.350466 0.669223
89 3 0.212463 0.346832 0.733544
90 4 0.169883 0.384178 0.605243
91 1 0.198471 0.443194 0.801553
92 3 0.214248 0.39845 0.902136
93 4 0.186915 0.505144 0.801553
94 1 0.154154 0.383784 0.950922
95 3 0.151983 0.287947 0.998058
96 4 0.118281 0.396743 0.960146
97 1 0.180305 0.228887 0.901311
98 3 0.236973 0.21422 0.91835
99 4 0.155964 0.203975 0.853155
100 1 0.252991 0.191235 0.79466
101 3 0.268648 0.151745 0.691602
102 5 0.289783 0.199331 0.80919
103 1 0.237407 0.22985 0.61699
104 3 0.273738 0.282475 0.548301
105 4 0.202162 0.232958 0.595777
106 1 0.263099 0.389913 0.601845
107 3 0.25702 0.421435 0.712379
108 4 0.238999 0.416838 0.554709
109 1 0.282061 0.530099 0.694175
110 3 0.274969 0.597259 0.606019
111 4 0.316945 0.531325 0.717282
112 1 0.25345 0.687536 0.677476
113 3 0.305486 0.731667 0.666505
114 4 0.245151 0.724268 0.737476
115 1 0.305799 0.742962 0.538689
116 3 0.297452 0.843527 0.567913
117 4 0.293182 0.751937 0.469757
118 1 0.355351 0.860908 0.625631
119 3 0.408979 0.826759 0.610631
120 4 0.349006 0.855961 0.699078
121 1 0.435878 0.932534 0.596942
122 3 0.476431 0.864016 0.629466
123 4 0.440075 0.998249 0.607282
124 1 0.464706 0.869577 0.758883
125 3 0.498456 0.784904 0.746505
126 4 0.441185 0.867169 0.816019
127 1 0.456456 0.718664 0.678107
128 3 0.488083 0.692001 0.585146
129 4 0.424925 0.685653 0.690583
130 1 0.451028 0.74572 0.494417
131 3 0.500507 0.718664 0.442184
132 4 0.433296 0.799746 0.468107
133 1 0.539033 0.796244 0.502427
134 3 0.570057 0.713235 0.467718
135 4 0.550396 0.840375 0.553883
136 1 0.568802 0.654481 0.581068
137 3 0.584194 0.582768 0.502136
138 4 0.552929 0.631452 0.642913
139 1 0.526561 0.570991 0.444563
140 3 0.561131 0.538637 0.359078
141 4 0.493028 0.588284 0.420777
142 1 0.587161 0.643404 0.330049
143 3 0.640693 0.60422 0.334369
144 4 0.582047 0.706799 0.308495
145 1 0.658569 0.656101 0.445971
146 3 0.691933 0.570422 0.443592
147 4 0.655216 0.686835 0.511505
148 1 0.646965 0.494199 0.483544
149 3 0.674467 0.421961 0.419369
150 4 0.613457 0.469857 0.499466
151 1 0.666337 0.47568 0.302961
152 3 0.712366 0.492229 0.234563
153 4 0.64173 0.498708 0.253786
154 1 0.748746 0.55072 0.321699
155 3 0.772749 0.467843 0.374417
156 4 0.75357 0.59831 0.373155
157 1 0.822325 0.453658 0.291408
158 3 0.869029 0.505582 0.328932
159 4 0.814918 0.410709 0.236214
160 1 0.903334 0.501773 0.218252
161 3 0.912308 0.517228 0.104563
162 4 0.926131 0.449236 0.212136
163 1 0.896555 0.631584 0.101553
164 3 0.90454 0.734556 0.0862136
165 4 0.861213 0.636662 0.0809709
166 1 0.94215 0.751937 0.191068
167 3 0.999035 0.758898 0.19301
168 4 0.917929 0.775885 0.240146
ITEM: TIMESTEP
1000
ITEM: NUMBER OF ATOMS
168
ITEM: BOX BOUNDS ss ss ss
-14.6644 27.5028
-12.0128 11.5313
-12.6984 7.01592
ITEM: ATOMS id type xs ys zs
1 1 0.17094 0.88878 0.384113
2 3 0.179799 0.826958 0.288789
3 4 0.196051 0.936588 0.400446
4 1 0.227639 0.776085 0.326381
5 3 0.244686 0.730398 0.427516
6 4 0.256421 0.798712 0.289155
7 1 0.241659 0.628697 0.392248
8 3 0.283641 0.604508 0.316483
9 4 0.21317 0.585198 0.38786
10 1 0.315347 0.537427 0.386629
11 3 0.311018 0.451257 0.447494
12 4 0.343318 0.54905 0.438403
13 1 0.305569 0.38116 0.352546
14 3 0.356464 0.343795 0.311175
15 4 0.284797 0.354148 0.297922
16 1 0.377984 0.304398 0.419525
17 3 0.387518 0.206448 0.385438
18 4 0.388399 0.314197 0.491113
19 1 0.333861 0.16963 0.407789
20 3 0.280287 0.194335 0.382126
21 4 0.335102 0.135429 0.4729
22 1 0.267315 0.118434 0.295987
23 3 0.239104 0.0681377 0.386826
24 4 0.273204 0.0754316 0.239975
25 1 0.18382 0.105517 0.367975
26 3 0.174325 0.0335354 0.282796
27 4 0.163485 0.160611 0.373885
28 1 0.11735 0.0155321 0.297523
29 3 0.0982595 0.0609782 0.193654
30 4 0.0824959 0.0271318 0.322448
31 1 0.142476 0.030048 0.116625
32 3 0.132678 0.108811 0.0443932
33 5 0.179044 0.033769 0.109473
34 1 0.132544 0.18885 0.129292
35 3 0.162952 0.270457 0.115878
36 4 0.105524 0.199823 0.184908
37 1 0.203054 0.260245 0.206541
38 3 0.248823 0.205113 0.204097
39 5 0.196305 0.209997 0.170488
40 1 0.27804 0.243886 0.102486
41 3 0.310382 0.299187 0.179979
42 4 0.280834 0.264436 0.0301286
43 1 0.358437 0.233731 0.185788
44 3 0.392877 0.293397 0.119014
45 4 0.377622 0.178403 0.178966
46 1 0.392099 0.38079 0.185627
47 3 0.378802 0.448323 0.0983174
48 5 0.418964 0.420774 0.157791
49 1 0.319013 0.44964 0.104194
50 3 0.290353 0.494448 0.194168
51 4 0.293413 0.410954 0.0821269
52 1 0.298762 0.594903 0.176468
53 3 0.266416 0.639106 0.0872471
54 4 0.324825 0.638636 0.182967
55 1 0.212507 0.618421 0.137007
56 3 0.189757 0.606983 0.246471
57 4 0.200334 0.568629 0.0947379
58 1 0.149098 0.682128 0.246268
59 3 0.113229 0.612116 0.198368
60 4 0.131544 0.737729 0.244909
61 1 0.0953257 0.564655 0.303601
62 3 0.0448773 0.610718 0.285627
63 4 0.105159 0.529463 0.362529
64 1 0.0262957 0.625575 0.405925
65 3 0.0519114 0.650132 0.508779
66 4 0.00562166 0.583255 0.435891
67 1 0.0628696 0.75296 0.494252
68 3 0.0631133 0.767679 0.615559
69 4 0.0489432 0.811715 0.474862
70 1 0.0283694 0.680167 0.643375
71 3 0.0491891 0.598506 0.699382
72 5 0.0100109 0.627297 0.677182
73 1 0.0416589 0.527449 0.603248
74 3 0.0907833 0.475377 0.590549
75 4 0.0230137 0.496335 0.548579
76 1 0.128264 0.559012 0.580149
77 3 0.160583 0.52796 0.673771
78 4 0.140026 0.6155 0.550082
79 1 0.133704 0.580219 0.769845
80 3 0.113943 0.540808 0.872773
81 4 0.129292 0.645453 0.791094
82 1 0.0642312 0.494569 0.831365
83 3 0.0643291 0.39258 0.854826
84 4 0.0315335 0.508271 0.805369
85 1 0.101329 0.360315 0.76303
86 3 0.155229 0.331018 0.743826
87 4 0.0805796 0.34316 0.700145
88 1 0.16432 0.384266 0.634889
89 3 0.216111 0.415415 0.66262
90 4 0.15478 0.422477 0.572658
91 1 0.209608 0.443342 0.784462
92 3 0.225539 0.395736 0.887456
93 4 0.201837 0.507054 0.792335
94 1 0.171709 0.377086 0.94138
95 3 0.174575 0.279298 0.979753
96 4 0.136865 0.387864 0.954559
97 1 0.197429 0.230953 0.880356
98 3 0.254122 0.233743 0.895643
99 4 0.174376 0.208199 0.829158
100 1 0.26848 0.206278 0.77581
101 3 0.293044 0.192543 0.667764
102 5 0.300682 0.205021 0.80981
103 1 0.255437 0.249069 0.59669
104 3 0.284163 0.310334 0.520734
105 4 0.22235 0.249072 0.564193
106 1 0.283749 0.399093 0.594604
107 3 0.29524 0.429313 0.707411
108 4 0.260868 0.42609 0.54446
109 1 0.297722 0.535432 0.690365
110 3 0.290442 0.602522 0.602759
111 4 0.333494 0.532256 0.710939
112 1 0.268207 0.686141 0.672152
113 3 0.322723 0.723868 0.668702
114 4 0.256215 0.722397 0.730334
115 1 0.322904 0.747958 0.544099
116 3 0.318178 0.844901 0.58073
117 4 0.31097 0.764081 0.473492
118 1 0.368279 0.857565 0.648815
119 3 0.423813 0.836027 0.632374
120 4 0.363269 0.851162 0.72676
121 1 0.446745 0.932044 0.625317
122 3 0.494218 0.897352 0.681343
123 4 0.451824 0.996584 0.628073
124 1 0.470787 0.869164 0.79216
125 3 0.501538 0.779987 0.789507
126 4 0.449441 0.861277 0.855205
127 1 0.467269 0.726102 0.703029
128 3 0.481322 0.681984 0.598234
129 4 0.435211 0.692468 0.71326
130 1 0.467701 0.761647 0.515919
131 3 0.518596 0.746207 0.459054
132 4 0.449053 0.808604 0.481688
133 1 0.552631 0.806271 0.534951
134 3 0.593079 0.732945 0.515357
135 4 0.562247 0.846845 0.58898
136 1 0.578617 0.665261 0.607227
137 3 0.592404 0.587249 0.53171
138 4 0.561683 0.639934 0.669991
139 1 0.543599 0.592789 0.456912
140 3 0.583379 0.571535 0.36871
141 4 0.510261 0.607039 0.427395
142 1 0.604798 0.667673 0.347496
143 3 0.658202 0.630494 0.359192
144 4 0.600414 0.729343 0.328987
145 1 0.668909 0.673333 0.47584
146 3 0.701951 0.588999 0.491943
147 4 0.666273 0.702396 0.543008
148 1 0.660312 0.518014 0.512618
149 3 0.691781 0.450853 0.443781
150 4 0.626653 0.492926 0.520994
151 1 0.685202 0.50027 0.328911
152 3 0.731195 0.518371 0.266404
153 4 0.661953 0.522737 0.277122
154 1 0.763029 0.571099 0.355362
155 3 0.792195 0.495975 0.411343
156 4 0.766471 0.619505 0.409967
157 1 0.838389 0.488613 0.33373
158 3 0.878377 0.553821 0.365806
159 4 0.834335 0.445701 0.273055
160 1 0.9184 0.535348 0.276314
161 3 0.917089 0.556262 0.158952
162 4 0.942221 0.484351 0.268404
163 1 0.916354 0.66261 0.158177
164 3 0.909619 0.759053 0.184292
165 4 0.883775 0.658863 0.128995
166 1 0.957926 0.781253 0.253262
167 3 0.997457 0.706547 0.271634
168 4 0.929359 0.805817 0.295585
ITEM: TIMESTEP
2000
ITEM: NUMBER OF ATOMS
168
ITEM: BOX BOUNDS ss ss ss
-14.176 25.6029
-12.5847 11.5868
-12.9099 7.00765
ITEM: ATOMS id type xs ys zs
1 1 0.184404 0.879232 0.375849
2 3 0.188906 0.813571 0.294461
3 4 0.20976 0.910289 0.410319
4 1 0.243174 0.765454 0.32401
5 3 0.259962 0.720525 0.423079
6 4 0.275009 0.79039 0.284218
7 1 0.250184 0.619567 0.38861
8 3 0.292794 0.584783 0.315583
9 4 0.219115 0.582182 0.386121
10 1 0.322707 0.520986 0.395321
11 3 0.297558 0.4457 0.458395
12 4 0.352522 0.535965 0.439379
13 1 0.295707 0.372942 0.365691
14 3 0.345459 0.323619 0.346338
15 4 0.273184 0.34896 0.310502
16 1 0.36012 0.287408 0.459765
17 3 0.370171 0.191231 0.436956
18 4 0.372181 0.291432 0.53115
19 1 0.310262 0.158314 0.424069
20 3 0.267081 0.20579 0.357564
21 4 0.294995 0.124244 0.480401
22 1 0.253286 0.12468 0.279345
23 3 0.21493 0.0891501 0.365135
24 4 0.258049 0.0746983 0.232004
25 1 0.159217 0.118447 0.324743
26 3 0.148876 0.0248042 0.280404
27 4 0.141611 0.174618 0.315665
28 1 0.0891697 0.0421832 0.242991
29 3 0.0801986 0.00698672 0.128914
30 4 0.0529635 0.0612516 0.253074
31 1 0.123891 0.0572663 0.068492
32 3 0.130827 0.143735 0.00440601
33 5 0.15209 0.106885 0.101896
34 1 0.120959 0.217342 0.0876816
35 3 0.165443 0.287065 0.0727945
36 4 0.0929028 0.240746 0.134473
37 1 0.195559 0.271471 0.182152
38 3 0.228697 0.19487 0.149064
39 5 0.201171 0.295143 0.121194
40 1 0.282536 0.236152 0.118088
41 3 0.317428 0.291985 0.188995
42 4 0.287154 0.257409 0.048541
43 1 0.369273 0.235971 0.200917
44 3 0.400872 0.283663 0.113036
45 4 0.390126 0.181488 0.202303
46 1 0.412748 0.373941 0.178201
47 3 0.393176 0.448388 0.106978
48 5 0.376586 0.365448 0.190051
49 1 0.33105 0.439692 0.115324
50 3 0.307501 0.479761 0.212623
51 4 0.303618 0.396772 0.0980074
52 1 0.31966 0.579323 0.190154
53 3 0.28831 0.622517 0.102715
54 4 0.349672 0.616191 0.196453
55 1 0.229258 0.618198 0.142386
56 3 0.203856 0.612894 0.253196
57 4 0.213853 0.573758 0.0991394
58 1 0.158742 0.683014 0.246254
59 3 0.108443 0.633597 0.20433
60 4 0.146397 0.740852 0.237202
61 1 0.0953426 0.578417 0.308432
62 3 0.0361981 0.591449 0.305885
63 4 0.104482 0.539763 0.368276
64 1 0.0265169 0.665998 0.388118
65 3 0.0217653 0.728757 0.4799
66 4 0.000572758 0.624981 0.41289
67 1 0.0775634 0.769204 0.485142
68 3 0.0916949 0.75382 0.602888
69 4 0.0549362 0.82049 0.473803
70 1 0.036137 0.706673 0.633997
71 3 0.0504851 0.620946 0.694074
72 5 0.0650628 0.755827 0.64876
73 1 0.0407101 0.554621 0.597449
74 3 0.0900686 0.498092 0.615489
75 4 0.0280179 0.531411 0.52685
76 1 0.135904 0.563189 0.581812
77 3 0.167697 0.54208 0.684643
78 4 0.148093 0.620022 0.552227
79 1 0.130467 0.593718 0.763838
80 3 0.112149 0.542053 0.859078
81 4 0.126421 0.654362 0.786665
82 1 0.0535663 0.518228 0.819026
83 3 0.0591243 0.423659 0.85028
84 4 0.0201433 0.533608 0.782851
85 1 0.0791379 0.379517 0.745098
86 3 0.135575 0.343284 0.759981
87 4 0.0603293 0.361164 0.679941
88 1 0.162932 0.392805 0.661056
89 3 0.21336 0.381027 0.723951
90 4 0.16948 0.432965 0.60583
91 1 0.211007 0.461243 0.803962
92 3 0.22118 0.420145 0.914761
93 4 0.204211 0.52481 0.80637
94 1 0.162163 0.399299 0.949748
95 3 0.164836 0.305288 0.992252
96 4 0.127051 0.411771 0.963522
97 1 0.191417 0.254464 0.896541
98 3 0.250324 0.238767 0.91659
99 4 0.169208 0.231304 0.842046
100 1 0.27191 0.228635 0.798488
101 3 0.294114 0.192226 0.693216
102 5 0.24326 0.232295 0.747629
103 1 0.265291 0.265829 0.618955
104 3 0.305379 0.323983 0.567167
105 4 0.22896 0.261585 0.588098
106 1 0.291059 0.416096 0.61508
107 3 0.289083 0.452314 0.728033
108 4 0.270596 0.442961 0.559326
109 1 0.305555 0.54824 0.703882
110 3 0.300232 0.615954 0.613865
111 4 0.343186 0.545211 0.72904
112 1 0.272248 0.690809 0.683628
113 3 0.322705 0.747181 0.680625
114 4 0.261274 0.725497 0.745316
115 1 0.331842 0.754839 0.556761
116 3 0.329376 0.853826 0.57355
117 4 0.322314 0.761102 0.481993
118 1 0.37584 0.860553 0.662745
119 3 0.435137 0.840476 0.630519
120 4 0.370218 0.852436 0.737113
121 1 0.456271 0.93656 0.627171
122 3 0.508386 0.919538 0.688921
123 4 0.460018 1.00007 0.625685
124 1 0.483967 0.876065 0.792774
125 3 0.522083 0.801493 0.774118
126 4 0.460887 0.869338 0.854887
127 1 0.48392 0.731421 0.723095
128 3 0.51553 0.699858 0.6299
129 4 0.450144 0.69751 0.722364
130 1 0.486034 0.760532 0.541429
131 3 0.537698 0.751967 0.478854
132 4 0.465213 0.811759 0.510634
133 1 0.573404 0.811159 0.552895
134 3 0.618224 0.745379 0.542535
135 4 0.582383 0.85924 0.598341
136 1 0.603574 0.678094 0.632316
137 3 0.617343 0.602564 0.564087
138 4 0.587934 0.656899 0.697097
139 1 0.568561 0.605286 0.48331
140 3 0.606277 0.580511 0.396938
141 4 0.532897 0.618673 0.45207
142 1 0.632018 0.675556 0.374721
143 3 0.690188 0.663776 0.386627
144 4 0.625117 0.729438 0.343421
145 1 0.70241 0.689961 0.505688
146 3 0.735334 0.60959 0.523411
147 4 0.69538 0.729573 0.565892
148 1 0.693818 0.535584 0.536407
149 3 0.725372 0.474732 0.467423
150 4 0.657715 0.511035 0.547587
151 1 0.717199 0.519057 0.355224
152 3 0.768618 0.535495 0.298059
153 4 0.691697 0.541911 0.304797
154 1 0.799127 0.598955 0.374906
155 3 0.832138 0.530252 0.432832
156 4 0.801845 0.637865 0.432914
157 1 0.878989 0.51673 0.347321
158 3 0.914022 0.594824 0.363708
159 4 0.875924 0.472412 0.296445
160 1 0.965548 0.564218 0.296513
161 3 0.971723 0.576144 0.175825
162 4 0.990643 0.515267 0.295037
163 1 0.957118 0.677264 0.165465
164 3 0.967156 0.773989 0.15805
165 4 0.921841 0.679573 0.135176
166 1 1.00042 0.792355 0.264958
167 3 0.993992 0.89003 0.255951
168 4 0.972536 0.824282 0.303408
ITEM: TIMESTEP
3000
ITEM: NUMBER OF ATOMS
168
ITEM: BOX BOUNDS ss ss ss
-14.176 25.6029
-12.5847 11.5868
-12.9099 7.00765
ITEM: ATOMS id type xs ys zs
1 1 0.173805 0.884988 0.37709
2 3 0.181541 0.823237 0.28569
3 4 0.179319 0.874818 0.453549
4 1 0.23744 0.783788 0.316753
5 3 0.25786 0.739703 0.416823
6 4 0.267785 0.808629 0.28318
7 1 0.24677 0.64032 0.394597
8 3 0.289685 0.608388 0.318155
9 4 0.218451 0.601967 0.399004
10 1 0.32771 0.563263 0.401429
11 3 0.304739 0.481572 0.455885
12 4 0.353426 0.575936 0.457329
13 1 0.319002 0.407855 0.371609
14 3 0.371988 0.366904 0.343733
15 4 0.299784 0.392849 0.312607
16 1 0.391824 0.339674 0.457803
17 3 0.407687 0.248531 0.422405
18 4 0.397733 0.345527 0.530622
19 1 0.354427 0.198906 0.427686
20 3 0.306488 0.234376 0.364927
21 4 0.342678 0.169763 0.493663
22 1 0.28644 0.148023 0.311892
23 3 0.252304 0.107033 0.402952
24 4 0.290862 0.1005 0.263083
25 1 0.19432 0.129345 0.354486
26 3 0.172761 0.0954498 0.245835
27 4 0.176123 0.189536 0.358204
28 1 0.129217 0.0285101 0.286042
29 3 0.117342 0.00492132 0.172865
30 4 0.0938887 0.0568685 0.297458
31 1 0.165659 0.0499941 0.113871
32 3 0.13684 0.120109 0.0493996
33 5 0.145596 0.091788 0.148172
34 1 0.154906 0.205285 0.114647
35 3 0.198943 0.273452 0.0942476
36 4 0.125384 0.221734 0.154756
37 1 0.221739 0.286487 0.208992
38 3 0.262514 0.212758 0.190625
39 5 0.2291 0.254931 0.127703
40 1 0.307115 0.265505 0.127462
41 3 0.334842 0.332681 0.19511
42 4 0.306194 0.281099 0.0521137
43 1 0.390795 0.282953 0.211693
44 3 0.413785 0.329592 0.117644
45 4 0.416132 0.233723 0.211244
46 1 0.423929 0.422039 0.161539
47 3 0.397959 0.469458 0.0706959
48 5 0.441379 0.42954 0.226936
49 1 0.33875 0.476786 0.111735
50 3 0.312258 0.508006 0.211306
51 4 0.313601 0.429797 0.0889272
52 1 0.310868 0.611563 0.191792
53 3 0.278794 0.65725 0.105352
54 4 0.33676 0.657768 0.197805
55 1 0.220019 0.631474 0.145279
56 3 0.197791 0.622889 0.260082
57 4 0.20813 0.589988 0.0985909
58 1 0.146366 0.683761 0.246012
59 3 0.100534 0.629866 0.202559
60 4 0.131433 0.740365 0.232865
61 1 0.0937248 0.560383 0.295771
62 3 0.0329622 0.565673 0.272022
63 4 0.103922 0.525787 0.357106
64 1 0.0181802 0.625073 0.373038
65 3 0.00220773 0.714868 0.405614
66 4 -0.00527135 0.582618 0.410161
67 1 0.0518368 0.747607 0.474104
68 3 0.0219828 0.76784 0.575703
69 4 0.0334243 0.799661 0.446466
70 1 0.00563396 0.673089 0.61216
71 3 0.0102564 0.585049 0.668641
72 5 -0.020264 0.663561 0.658869
73 1 0.030322 0.52343 0.575514
74 3 0.0849459 0.482917 0.589784
75 4 0.0243407 0.488725 0.514312
76 1 0.118744 0.569568 0.575504
77 3 0.156874 0.556566 0.669404
78 4 0.13034 0.621642 0.543299
79 1 0.122304 0.594653 0.761196
80 3 0.10524 0.539023 0.854448
81 4 0.117846 0.652746 0.780464
82 1 0.048843 0.506892 0.814331
83 3 0.0674533 0.416994 0.845336
84 4 0.0138444 0.517211 0.787621
85 1 0.0633257 0.368267 0.735124
86 3 0.118182 0.321988 0.729275
87 4 0.0390651 0.346552 0.679956
88 1 0.145588 0.391485 0.655782
89 3 0.197259 0.378056 0.714425
90 4 0.145963 0.431909 0.594668
91 1 0.199662 0.463696 0.782568
92 3 0.217155 0.420691 0.887558
93 4 0.19665 0.52758 0.779679
94 1 0.160162 0.404643 0.937394
95 3 0.163434 0.311088 0.979254
96 4 0.122421 0.416574 0.954782
97 1 0.185628 0.261407 0.878421
98 3 0.244888 0.26721 0.890735
99 4 0.164729 0.234054 0.825787
100 1 0.266113 0.228353 0.784164
101 3 0.263049 0.18728 0.671544
102 5 0.277307 0.166302 0.77929
103 1 0.25461 0.273122 0.604055
104 3 0.290193 0.333843 0.537779
105 4 0.218276 0.274177 0.579241
106 1 0.278999 0.424351 0.588876
107 3 0.273374 0.456519 0.701465
108 4 0.253122 0.45322 0.546674
109 1 0.297814 0.55109 0.694236
110 3 0.291091 0.621738 0.605795
111 4 0.332865 0.550997 0.72377
112 1 0.270456 0.700046 0.682402
113 3 0.325079 0.746337 0.673758
114 4 0.256993 0.734015 0.745195
115 1 0.329489 0.757853 0.550013
116 3 0.331298 0.853498 0.566542
117 4 0.317439 0.770489 0.477283
118 1 0.37675 0.8632 0.653234
119 3 0.434369 0.835194 0.646358
120 4 0.366955 0.858411 0.728459
121 1 0.461708 0.931996 0.636313
122 3 0.512906 0.906844 0.700477
123 4 0.463048 0.995843 0.62927
124 1 0.484215 0.8652 0.801927
125 3 0.517381 0.780278 0.792477
126 4 0.460155 0.86376 0.862345
127 1 0.481201 0.726042 0.713277
128 3 0.509952 0.697027 0.615277
129 4 0.445882 0.696436 0.717527
130 1 0.483045 0.763275 0.529024
131 3 0.536267 0.747511 0.472596
132 4 0.463051 0.808109 0.493111
133 1 0.57349 0.804045 0.549602
134 3 0.620087 0.738688 0.549705
135 4 0.58178 0.850543 0.599188
136 1 0.598384 0.670298 0.630162
137 3 0.608698 0.589675 0.5624
138 4 0.582397 0.650185 0.693183
139 1 0.561148 0.594625 0.481347
140 3 0.600257 0.57482 0.38806
141 4 0.526404 0.612849 0.450409
142 1 0.627313 0.667457 0.372422
143 3 0.685259 0.640825 0.385139
144 4 0.622983 0.72776 0.351743
145 1 0.698284 0.672912 0.500308
146 3 0.730969 0.58712 0.512585
147 4 0.693351 0.707466 0.5647
148 1 0.684134 0.520534 0.531033
149 3 0.714857 0.456388 0.458351
150 4 0.648082 0.492542 0.545901
151 1 0.707299 0.501909 0.348557
152 3 0.758631 0.516653 0.287077
153 4 0.685434 0.525844 0.29489
154 1 0.791996 0.56713 0.374972
155 3 0.820798 0.494288 0.426314
156 4 0.79664 0.613763 0.430901
157 1 0.870726 0.479419 0.353613
158 3 0.910124 0.552967 0.363229
159 4 0.86557 0.439448 0.294638
160 1 0.958452 0.521031 0.297047
161 3 0.959229 0.540886 0.178734
162 4 0.985752 0.47793 0.300792
163 1 0.954882 0.641555 0.173991
164 3 0.984933 0.727068 0.164961
165 4 0.918621 0.656879 0.149198
166 1 1.0029 0.740228 0.28478
167 3 0.979631 0.752342 0.39415
168 4 0.977756 0.770028 0.33329
ITEM: TIMESTEP
4000
ITEM: NUMBER OF ATOMS
168
ITEM: BOX BOUNDS ss ss ss
-14.176 25.6029
-12.5847 11.5868
-12.9099 7.00765
ITEM: ATOMS id type xs ys zs
1 1 0.182962 0.883 0.343765
2 3 0.198192 0.821191 0.252427
3 4 0.164064 0.852435 0.400427
4 1 0.250091 0.776156 0.296625
5 3 0.256163 0.739323 0.410221
6 4 0.282788 0.803737 0.275896
7 1 0.249733 0.639267 0.385674
8 3 0.29616 0.59762 0.325772
9 4 0.219597 0.600938 0.390569
10 1 0.326839 0.552668 0.420604
11 3 0.311112 0.468939 0.478177
12 4 0.353549 0.568544 0.465854
13 1 0.31972 0.401169 0.382398
14 3 0.376304 0.364122 0.360653
15 4 0.300462 0.382656 0.319779
16 1 0.386419 0.326957 0.481307
17 3 0.400293 0.235163 0.444292
18 4 0.3892 0.330025 0.559199
19 1 0.342474 0.190768 0.450402
20 3 0.295424 0.226974 0.382968
21 4 0.329732 0.158222 0.510766
22 1 0.279781 0.146099 0.318105
23 3 0.241852 0.109918 0.398715
24 4 0.289704 0.0981569 0.27366
25 1 0.186756 0.131737 0.35703
26 3 0.180301 0.07385 0.263865
27 4 0.165601 0.180146 0.369693
28 1 0.121366 0.0422842 0.274793
29 3 0.107863 0.0725377 0.160346
30 4 0.0843228 0.051106 0.289457
31 1 0.164293 0.0509534 0.105789
32 3 0.152021 0.124554 0.0311181
33 5 0.196274 0.0278416 0.0920352
34 1 0.152171 0.20949 0.107163
35 3 0.203686 0.255582 0.0873628
36 4 0.122054 0.231383 0.1438
37 1 0.223752 0.281416 0.198557
38 3 0.267507 0.21201 0.194047
39 5 0.218173 0.221037 0.199906
40 1 0.309513 0.261437 0.124915
41 3 0.33868 0.307551 0.215204
42 4 0.31757 0.288323 0.0584755
43 1 0.38801 0.25048 0.234376
44 3 0.42418 0.312459 0.171746
45 4 0.410737 0.200809 0.23504
46 1 0.425625 0.395908 0.239522
47 3 0.416222 0.450756 0.141078
48 5 0.447158 0.446117 0.271644
49 1 0.35318 0.458912 0.148536
50 3 0.317839 0.500104 0.227761
51 4 0.328897 0.418522 0.116165
52 1 0.326298 0.600757 0.207467
53 3 0.294187 0.643876 0.121539
54 4 0.349895 0.649936 0.218723
55 1 0.235918 0.622597 0.149195
56 3 0.204971 0.617517 0.249135
57 4 0.228691 0.57685 0.101331
58 1 0.159057 0.686359 0.230815
59 3 0.119433 0.623693 0.181565
60 4 0.14572 0.741662 0.217315
61 1 0.101594 0.566421 0.279761
62 3 0.0415378 0.572005 0.270019
63 4 0.111937 0.530032 0.340347
64 1 0.0285336 0.656535 0.339218
65 3 0.0105093 0.740478 0.394797
66 4 0.00308893 0.616554 0.3674
67 1 0.0649671 0.762962 0.457028
68 3 0.0464381 0.778833 0.574924
69 4 0.0502351 0.819205 0.43199
70 1 0.018308 0.686126 0.592662
71 3 0.0402405 0.601407 0.646972
72 5 0.00570054 0.731767 0.643685
73 1 0.029998 0.53549 0.554038
74 3 0.0826251 0.492359 0.568314
75 4 0.0179022 0.512867 0.487945
76 1 0.121027 0.570162 0.556677
77 3 0.149731 0.538351 0.653797
78 4 0.135055 0.628688 0.535564
79 1 0.11795 0.591669 0.741633
80 3 0.102982 0.522367 0.827134
81 4 0.114805 0.652449 0.768845
82 1 0.0436509 0.506672 0.788209
83 3 0.0513193 0.410111 0.821805
84 4 0.00827262 0.524996 0.766917
85 1 0.0508932 0.366839 0.706563
86 3 0.100536 0.313589 0.693906
87 4 0.0299644 0.353803 0.641774
88 1 0.141799 0.385123 0.656301
89 3 0.181889 0.365187 0.742697
90 4 0.148608 0.425137 0.594868
91 1 0.195579 0.462065 0.78064
92 3 0.209957 0.425288 0.886039
93 4 0.191601 0.525353 0.785369
94 1 0.15258 0.39989 0.929838
95 3 0.154219 0.307124 0.968878
96 4 0.114289 0.410031 0.93933
97 1 0.179868 0.257348 0.872884
98 3 0.241183 0.260181 0.892195
99 4 0.159734 0.233365 0.815894
100 1 0.259508 0.226026 0.779399
101 3 0.267491 0.187559 0.66839
102 5 0.278446 0.209087 0.842251
103 1 0.254278 0.271415 0.599152
104 3 0.295844 0.335036 0.556311
105 4 0.216599 0.273834 0.575493
106 1 0.274331 0.425836 0.590405
107 3 0.269169 0.455329 0.706248
108 4 0.251636 0.454684 0.534504
109 1 0.296097 0.547815 0.694585
110 3 0.290938 0.62152 0.611053
111 4 0.330061 0.545561 0.726966
112 1 0.266637 0.695987 0.683696
113 3 0.319288 0.745615 0.683369
114 4 0.255133 0.729069 0.746217
115 1 0.32606 0.761859 0.559491
116 3 0.324971 0.856643 0.584442
117 4 0.313795 0.768578 0.488368
118 1 0.375276 0.862323 0.66218
119 3 0.432765 0.837748 0.665216
120 4 0.366149 0.856603 0.736727
121 1 0.459818 0.932469 0.649544
122 3 0.508221 0.903373 0.707851
123 4 0.461957 0.995893 0.6464
124 1 0.4808 0.862094 0.812066
125 3 0.511147 0.772557 0.809477
126 4 0.457518 0.858904 0.870872
127 1 0.477626 0.725887 0.719452
128 3 0.499854 0.690464 0.614765
129 4 0.4438 0.693988 0.728694
130 1 0.478499 0.763258 0.536844
131 3 0.529801 0.748275 0.479418
132 4 0.460082 0.81304 0.50355
133 1 0.568909 0.805192 0.554286
134 3 0.612176 0.735665 0.542864
135 4 0.578734 0.848263 0.607357
136 1 0.597685 0.668167 0.630948
137 3 0.609059 0.594621 0.55369
138 4 0.579668 0.643638 0.693071
139 1 0.558211 0.594787 0.477089
140 3 0.599545 0.571574 0.395948
141 4 0.524566 0.609696 0.450972
142 1 0.625147 0.668725 0.376052
143 3 0.684143 0.642526 0.379271
144 4 0.621367 0.729507 0.359315
145 1 0.694264 0.670179 0.500522
146 3 0.726992 0.586219 0.515577
147 4 0.688871 0.705072 0.563496
148 1 0.678905 0.51842 0.524172
149 3 0.708056 0.456246 0.451562
150 4 0.644617 0.490246 0.538028
151 1 0.709623 0.513218 0.343763
152 3 0.763036 0.51812 0.294636
153 4 0.684744 0.535224 0.294417
154 1 0.791749 0.581689 0.377268
155 3 0.818074 0.499896 0.424735
156 4 0.794601 0.629376 0.423865
157 1 0.870023 0.497758 0.357344
158 3 0.90963 0.57017 0.369244
159 4 0.865839 0.451564 0.306946
160 1 0.957026 0.53672 0.294481
161 3 0.935023 0.577416 0.193997
162 4 0.979612 0.49144 0.266549
163 1 0.96003 0.671468 0.202248
164 3 0.952461 0.76695 0.23573
165 4 0.923754 0.669763 0.174683
166 1 1.00178 0.777365 0.311967
167 3 1.04932 0.738998 0.252809
168 4 0.973665 0.788676 0.36667
ITEM: TIMESTEP
5000
ITEM: NUMBER OF ATOMS
168
ITEM: BOX BOUNDS ss ss ss
-14.2256 26.9799
-11.6304 11.4694
-12.135 6.27943
ITEM: ATOMS id type xs ys zs
1 1 0.173219 0.843672 0.390244
2 3 0.178712 0.770372 0.292251
3 4 0.168202 0.806055 0.456604
4 1 0.237951 0.768123 0.280035
5 3 0.258335 0.722593 0.387604
6 4 0.266673 0.796858 0.252871
7 1 0.250429 0.61983 0.359663
8 3 0.280797 0.570384 0.272731
9 4 0.220899 0.582762 0.373969
10 1 0.3276 0.531729 0.343373
11 3 0.312002 0.463876 0.434332
12 4 0.358584 0.554945 0.367556
13 1 0.309925 0.375894 0.356732
14 3 0.354321 0.320108 0.308474
15 4 0.282785 0.344505 0.312593
16 1 0.386618 0.303447 0.418313
17 3 0.401108 0.201363 0.399219
18 4 0.400291 0.313848 0.4942
19 1 0.347271 0.156561 0.378816
20 3 0.294385 0.186267 0.335088
21 4 0.341354 0.11724 0.447414
22 1 0.281276 0.102262 0.253063
23 3 0.253298 0.0599718 0.352434
24 4 0.288368 0.0597453 0.193984
25 1 0.196489 0.0842322 0.327677
26 3 0.187326 0.00734802 0.242242
27 4 0.179755 0.142036 0.339363
28 1 0.126636 -0.00415474 0.262736
29 3 0.112628 0.0510729 0.156674
30 4 0.091906 0.00188864 0.291489
31 1 0.150214 0.00822427 0.0649288
32 3 0.150019 0.0924778 -0.00805108
33 5 0.137327 -0.0216978 -0.018002
34 1 0.142367 0.169064 0.0875942
35 3 0.188506 0.221687 0.0466478
36 4 0.115931 0.185147 0.14088
37 1 0.214025 0.249545 0.165266
38 3 0.253213 0.172323 0.14796
39 5 0.208529 0.263209 0.235922
40 1 0.290945 0.222782 0.0638248
41 3 0.322595 0.291838 0.131652
42 4 0.290037 0.240756 -0.0169847
43 1 0.375442 0.234155 0.141449
44 3 0.398945 0.284218 0.0401374
45 4 0.398273 0.183018 0.149264
46 1 0.419181 0.373228 0.0966816
47 3 0.394618 0.434946 0.0120551
48 5 0.453728 0.378997 0.111249
49 1 0.336935 0.439149 0.0527628
50 3 0.327032 0.484898 0.167981
51 4 0.310515 0.395193 0.0553076
52 1 0.312706 0.584939 0.128149
53 3 0.277012 0.621805 0.0352586
54 4 0.339507 0.631158 0.120678
55 1 0.223267 0.607342 0.094066
56 3 0.203256 0.608045 0.213831
57 4 0.209844 0.555898 0.0482052
58 1 0.15439 0.671907 0.205385
59 3 0.105017 0.622534 0.167313
60 4 0.140911 0.729106 0.180955
61 1 0.101984 0.551386 0.275029
62 3 0.0442688 0.540895 0.280864